# vtk DataFile Version 2.0
Converted from AcoDyn output file
ASCII
DATASET UNSTRUCTURED_GRID
POINTS 15344 double
4.110645995152158 0.4308988138211291 0
0.9452743454652817 0.2792787583160035 0
1.352911628224594 0.8538630082797498 0
1.808281051112825 0.4027036104750207 0
0.4060152511498785 0.5333514772435046 0
4.736194764501278 0.04278727903335496 0
2.065275877950135 0.2792793411917313 0
4.372816548578328 0.9015473854511429 0
0.7996718100421791 0.1290558022181467 0
0.5333451560405954 0.5459276976825913 0
3.28220567079553 0.2140244372358973 0
2.410052442412709 0.01634592359672147 0
1.896931367474376 0.7445849038872162 0
3.474733996426407 0.3872182246975404 0
4.573563512609462 0.4129106077512251 0
2.660059426019515 0.4477235522524148 0
3.840003006105384 0.4999614807702673 0
3.094754877582641 0.9228101180486971 0
3.060000000000858 0 0
4.723630646121911 0.107290186682199 0
2.659882981416189 0.180116205335367 0
4.935111792136422 0.5008031875708413 0
0.1656315098361434 0.7115401410513712 0
1.528955300547178 0.8858130516422069 0
4.922418444793123 0.03623476328364991 0
4.709978003101745 0.06509765294247129 0
3.111408746995956 0.6473102609647853 0
0.9871783036410113 0.9075101031264199 0
2.748134779651974 0.8899051237680167 0
3.908511540482063 0.4037096828835239 0
4.505701019428927 0.5859034717257325 0
4.145869252304826 0.2774929521406919 0
4.950789734593483 0.9276053530593916 0
0.6975535630388248 0.6310006238366488 0
2.155429688061908 0.04068762632679489 0
2.90000740520563 0.4999607588238186 0
2.279673268621072 0.1290576402964663 0
0.940059426011637 0.4477235522606557 0
4.839999999999756 1 0
1.999673268621143 0.1290576402964434 0
1.907178438476003 0.9075102473838286 0
0.132297166882006 0.05470726766562669 0
2.555415038448634 0.3376653212155824 0
0.3999999999996642 1 0
1.353644125875884 0.095902641778134 0
0.07126760222340235 0.6382025956115259 0
4.058815938373805 0.8710624395604178 0
2.166417894393338 0.8356563588971702 0
0.1185423596349559 0.8627144352848333 0
1.500000000001551 0 0
3.838210362978586 0.8204521720179575 0
4.640395164539448 0.9659434930117573 0
4.125266003643924 0.6127817752914744 0
2.288281051112637 0.4027036104750612 0
4.826270309709153 0.3257005977298243 0
0.7581853438469105 0.4987777780279479 0
0.02648336088295014 0.1359800230205941 0
4.306415900226388 0.5679778122893799 0
3.402231296451986 0.3699825485314008 0
1.99253574605382 0.06038866544252654 0
2.463752304806609 0.9655274128778741 0
0.7978875545524636 0.7764206031746038 0
2.76624684863194 0.07447196852886674 0
0.561856792892243 0.7420233120395435 0
4.518284520452451 0.4262325332146106 0
2.155265471245004 0.4816556719595546 0
2.772821561520864 0.09248975261616602 0
3.066596371746261 0.8359122732545377 0
2.3465963717454 0.8359122732545377 0
2.867149170894463 0.1462775426779974 0
3.625245122415604 0.07718988195179181 0
1.1064246392622 0.2948856859243787 0
1.33545806218768 0.3867372913758141 0
2.922736043846433 0.2498210443458257 0
1.553753151365868 0.9255280314711284 0
0.3172480714132683 0.8939909954607282 0
4.983208065487974 0.1660926227543526 0
2.65814454384665 0.5826540972530528 0
2.111044699450852 0.1141869483577849 0
0.5145774711439894 0.0759809656016477 0
2.047464253943069 0.9396113345574796 0
0.2702019935194463 0.6625143545479159 0
0.5715111505747302 0.22796366882706 0
0.2978608196174137 0.684577980992548 0
2.50959401835214 0.4629200312208427 0
1.008281051113707 0.4027036104750982 0
4.563292215496506 0.9005088567569844 0
1.840615711241004 0.4175008782477878 0
3.257451497724764 0.7689512394221152 0
3.013287592750529 0.3368607109989197 0
0.08353580651543543 0.3592450350050267 0
3.980059426177029 0.4477235521788279 0
0.6871268086426241 0.1451815834705594 0
1.629239569392278 0.3528230205949454 0
2.856538627484162 0.6765144230479286 0
1.884584961548534 0.6623346787844105 0
3.85475487758368 0.9228101180486968 0
1.570450429467255 0.5369860353880901 0
0.6317131020353033 0.01314401315899224 0
0.5696214431837864 0.07904993354193723 0
2.513058091746341 0.7079032615750449 0
2.299999999995897 1 0
2.529406204190385 0.5690458309354613 0
3.345233562186679 0.9447232250073886 0
0.8041342367900585 0.2705872688800193 0
2.597449835743934 0.7706977060676908 0
4.783846731540686 0.6076610065021366 0
2.728281051112791 0.4027036104750521 0
1.560326731376829 0.8709423597035286 0
4.456104205612678 0.2976320595253932 0
3.953753151367464 0.925528031471316 0
4.387105941053703 0.888924017901969 0
4.849940626229333 0.9111964110912358 0
2.053403628251794 0.1640877267454959 0
4.220000000000344 0 0
0.542125742753648 0.3534129608541824 0
3.337451497724849 0.7689512394221163 0
0.5701633683059892 0.2429817026201172 0
0.1372803395125464 0.118539817250067 0
0.8852658882442112 0.6127820348506974 0
0.2096360395617311 0.8509168003505044 0
1.751540255393406 0.1949677710054326 0
2.921789637020252 0.1795478279820864 0
3.008955300547208 0.885813051642249 0
0.03373636312017236 0.4472927141622419 0
4.285386320963478 0.4660250018546646 0
0.7145162751447772 0.5338006618976446 0
3.774724122048383 0.7207206588083057 0
3.091489779119968 0.5962889071114907 0
0.8935729422914245 0.7051134062019472 0
2.349483760574838 0.5680518061274514 0
4.294868205730243 0.7193899906483642 0
4.454486273970964 0.4026128201158238 0
2.153753151364818 0.9255280314711578 0
3.776880705559479 0.4819435527319693 0
3.988511542169905 0.4037096822453361 0
1.904541937810254 0.6132627086241413 0
4.010052448790867 0.01634592283143955 0
4.547414109041957 0.1606101287863141 0
0.3731541839194024 0.8656613295825023 0
0.7154717681884548 0.04052288901318738 0
4.057692788902672 0.6303676456514189 0
0.6075970324722281 0.9363740913066915 0
0.6619897175131897 0.9672271753703147 0
0.8914897016371213 0.5962890903568763 0
0.6299165945248654 0.7335426709163424 0
3.997449835745436 0.7706977060676818 0
4.30623420213555 0.537841801705617 0
3.999384288757535 0.582499121752212 0
3.77778531389236 0.7915344772588394 0
4.557330538812346 0.3606346628060602 0
0.3762601183131887 0.3999464322608174 0
1.740059426019642 0.4477235522523924 0
0.8685115399557111 0.4037096830081151 0
1.136247695191294 0.03447258712212429 0
1.023068539808277 0.2554150348914295 0
1.332821561521515 0.09248975261613426 0
3.300007405205845 0.4999607588238189 0
0.04427906670884005 0.4873091933412003 0
4.661437608644286 0.2477428950595113 0
3.402550164253494 0.229302293932356 0
4.056538627485559 0.6765144230474608 0
4.023085994669596 0.2554232794849819 0
0.646046615781518 0.9375129278496955 0
4.857946770236981 0.3221285279104868 0
4.789155840737966 0.6386605079229698 0
4.188516243490986 0.8047757680422416 0
4.60713495950356 0.8909859028689313 0
0.4040743978616027 0.4347124065456631 0
4.901273746578068 0.03264839222786767 0
3.764758918353882 0.518258541691894 0
1.420007405206138 0.4999607588238031 0
1.051865220247158 0.1100948761548088 0
1.06527587795117 0.2792793411916888 0
1.15712034667273 0.9737700806779115 0
4.807335485310722 0.3442070311296277 0
4.30372899760326 0.8896100730728529 0
3.69624769519118 0.03447258712338763 0
2.800615711241058 0.4175008782478188 0
0.805891913051788 0.9235274191924435 0
1.785275877950368 0.2792793411916883 0
3.394733996426382 0.3872182246975404 0
4.820724338427147 0.2192528066236441 0
2.101184061625593 0.1289375604395733 0
2.166355874121555 0.9040973582218639 0
2.713582105603555 0.1643436411028728 0
4.908040052159001 0.8823943057112333 0
1.007088371772371 0.1461369917180768 0
1.343752304807572 0.965527412877516 0
1.077448435667009 0.7706965095461792 0
0.6546028109054225 0.7690200243893822 0
2.979935590362592 0.5522547999680931 0
3.084584961549195 0.6623346787844585 0
4.361370310033238 0.4429782372488523 0
3.55821036297826 0.8204521720179585 0
4.570590557127066 0.08059633297621505 0
0.01216241901100721 0.07029427882480979 0
1.217785045285841 0.7915342070489129 0
0.6817314587285629 0.0216213735545641 0
2.943068632522726 0.2554150961127774 0
4.172855387754987 0.8537282368476605 0
3.472911628226969 0.8538630082819347 0
0.5055574580014074 0.6036403790202274 0
3.840625732104562 0.5528111559204492 0
2.517768703545598 0.6300174514686381 0
1.682205670795871 0.2140244372358462 0
3.894766448628616 0.05527679185176802 0
1.46642463926178 0.2948856859243829 0
1.826596371745455 0.8359122732544885 0
4.722530697126956 0.03308466184517612 0
4.639710651791942 0.2913116879871337 0
4.740461041156339 0.7328218431394316 0
4.659999999999483 1 0
1.872911628225515 0.8538630082818873 0
2.53993559036231 0.5522547999680946 0
3.20223129645193 0.3699825485313979 0
2.789483760575134 0.5680518061274502 0
3.520326731377576 0.8709423597035725 0
1.953753151364796 0.9255280314711324 0
2.937451497724423 0.7689512394221157 0
2.377692788900551 0.6303676456528907 0
4.059887095514465 0.1801124908635467 0
4.649567672038247 0.4408381510831113 0
3.650570573006726 0.431890274706009 0
3.25340362825164 0.1640877267455049 0
4.139935591049904 0.5522547995167756 0
2.599384288756444 0.5824991217522033 0
4.355406836963041 0.1718753962282609 0
2.369435848866932 0.9813039245993733 0
2.534766437811812 0.05527677499262975 0
0.5379936189357354 0.8277297219179043 0
2.940000000000911 0 0
1.342214686107025 0.2084655227411553 0
4.64387827356596 0.5960649952583832 0
3.559384288757115 0.5824991217522082 0
3.032535746053471 0.06038866544253835 0
1.073753104553419 0.9255279498586121 0
0.08853329895035285 0.6664333088896132 0
4.647717758854669 0.8763955821604934 0
1.943135826874757 0.5179713215477476 0
3.825276626652917 0.2792800085213362 0
2.988511540335942 0.4037096828910771 0
0.02710527934668477 0.1926767558756843 0
2.3864246392612 0.2948856859244312 0
4.854053221228377 0.5239474371071491 0
0.9154150384427907 0.3376653212237631 0
3.270645962087371 0.4308988513517118 0
3.644622850284007 0.3232721687133099 0
0.1378724797035272 0.6807327004058527 0
1.583135826875371 0.5179713215477582 0
5 0.1600000000006658 0
2.642550164253489 0.2293022939323524 0
3.645266003572087 0.6127817753024948 0
3.96635587412395 0.9040973582218612 0
4.474906712360142 0.3594026377971111 0
0.1720646828551857 0.371266116913546 0
[...]
CELL_DATA 30086
FIELD 0 2
velocity 3 30086 double
0.0065052247784618345 0.0000023585120410733652 0
0.006429314993520535 0.0000024973470159901576 0
0.007304604949164375 -0.00000004073352826346328 0
0.007264542918818883 -0.00000006155033971008571 0
0.004648764996792111 0.0000012819129708130678 0
0.004776579146389504 0.0000014593669145312752 0
0.005793711505167121 0.0000016697511774616517 0
0.005839523714856481 0.000001696868097834288 0
0.0033461202910516036 0.0000005009196741987157 0
0.007499205358051775 -0.000000016068048087106976 0
0.003043225011281413 -0.00000391814168202655 0
0.0034828482640525647 0.00000023001376460541053 0
0.0026520621046287923 0.000006006865036107407 0
0.004633491531296506 -0.0000008555485961315555 0
0.0026524351934587563 0.000006183661455335406 0
0.004518554500518338 -0.0000008854780743598641 0
0.00750072053450983 0.0000001474415413020176 0
0.006427511876232567 -0.0000006691487826523674 0
0.007500316032348036 0.0000005504118014587541 0
0.003283734682222068 0.000005150853171809471 0
0.0031733271004124376 0.000004211453341954149 0
0.0032839962895597668 0.000005351800158837016 0
0.003173623870922119 0.000004380379829952986 0
0.0035925682887405198 -0.000003613930422008249 0
0.003741406209359708 -0.000003413385754861315 0
0.0036890624144486476 0.000006020586354540762 0
0.003886391996057377 0.000005818345871101822 0
0.005505741530904167 0.0000015445885877106723 0
0.006470784220473076 -0.0000004390922141156815 0
0.0036891226005880337 0.000006260279461521368 0
0.0038862763434332074 0.000006057188670937328 0
0.007500438157663259 -0.0000004240759230476379 0
0.0034587855828660252 -0.0000024839878854579728 0
0.007283879662047038 0.0000006590640730260317 0
0.007264874325970108 0.0000005774384831420537 0
0.007284293303129628 0.0000005475512779628847 0
0.007264827482466514 0.0000004282464695186636 0
0.0034832371528796253 -0.0000017289431650251828 0
0.004907392640579683 -0.0000013746185831129318 0
0.004800362832074568 -0.0000011620438307851517 0
0.004905765823724181 -0.0000006057541980222372 0
0.004800369558538734 -0.0000004724493545400826 0
0.0035912220958345537 -0.0000004392573423962329 0
0.005206491548210696 0.000001266475583829632 0
0.006662478976057802 0.0000009473479034269649 0
0.005079343311806744 0.0000013511290922537126 0
0.0037143197200751542 -0.0000005406975465764092 0
0.00473909354535175 0.0000017795931806607733 0
0.003587582078445578 -0.00000046435824612701466 0
0.0047095132118396485 0.0000017235919669372464 0
0.0037114305653612135 -0.0000005170460287641081 0
0.006269366252856485 0.0000007113657546033892 0
0.0003260922176492522 0.000000309729139454005 0
0.00016460015033755655 0.0000003139589969724094 0
0.006305573600329207 0.0000008483991205048785 0
0.006303358369416123 -0.0000005696212789680632 0
0.006414711068427494 -0.0000006673439107387449 0
0.007270665159115295 -0.00000006555858960409304 0
0.0073140479728282136 0.00000007431588977420803 0
0.007271706967853973 0.00000006801468015746981 0
0.007459771483912679 0.00000015633544232688719 0
0.007436659519935894 0.00000006169468608385095 0
0.007316804106220682 0.00000019581066524913559 0
0.005744881233386099 0.0000010271269790010825 0
0.005898033999129224 0.0000008956268736415307 0
0.006606260695831308 -0.000000558500540391201 0
0.006513682987312306 -0.0000005104797719234386 0
0.007489305622587105 0.0000006734094442274572 0
0.0066068477006892045 0.0000003881819682604511 0
0.003731940047750293 -0.000000308627469443141 0
0.003675184938397128 -0.00000048141750324958 0
0.003936688179228969 -0.0000007436557644009005 0
0.0039623604586224315 -0.0000008185101460964541 0
0.00651303192929043 0.0000004043539190008596 0
0.007273470143866739 -0.00000015606539618070558 0
0.0018926878601753113 -0.00000019868232801478893 0
0.007468333394907466 0.0000006590091015090416 0
0.0018922150268254453 -0.00000012088564511076806 0
0.006849007390674961 0.000001407336594162951 0
0.006321200686151942 0.0000010878227564817408 0
0.006421943840886737 0.000000946925307441204 0
0.004449306115587364 -0.0000027708917656527224 0
0.007487225463881963 -0.00000002686257030964515 0
0.007316809837084711 0.00000004331984618983191 0
0.00010072255275113482 0.00000013246757388856303 0
0.005154688339280265 0.0000007329670585922987 0
0.0075010672384947215 0.00000034687370866507983 0
0.0060986935205311794 0.0000009892347764307058 0
0.00606112552547787 0.0000008988317275071456 0
0.006189289689455058 0.0000009719933327180859 0
0.00750119967334873 -0.00000030219790054392697 0
0.006235765115937752 0.0000007987218696159557 0
0.0072743987751981085 0.00000011055005875506945 0
0.007500595314864472 0.000000008168849451449137 0
0.0001538780745639528 0.00000008719874169464635 0
0.0030372823700219164 -0.0000017432689801815903 0
0.007317582371546465 0.0000002685473457719823 0
0.003946260997662052 -0.0000002959339135324021 0
0.00010074961500236966 0.00000013407058401551106 0
0.007500019361866199 0.000000042166656214303954 0
0.0037711778544771853 -0.00000047244326376126535 0
0.006608905168031465 -0.0000002894695847397644 0
0.006521242696600358 -0.0000003303900078874505 0
0.0066088108601071414 -0.0000003463042999764983 0
0.007375075913436357 -0.0000018001849514408835 0
0.0019489638813591833 -0.0000017867102018627005 0
0.006521151565794661 -0.000000376837619370602 0
0.007247531363466136 -0.0000017320948868458865 0
0.0073694172602884805 0.000000333744141140503 0
0.00738387561433331 0.0000003861217641982057 0
0.00016678177071291776 0.00000005737136117857408 0
0.007501010375488851 0.0000008152854963419768 0
0.0033655014874810936 -0.00000008630997427700509 0
0.004424388650401972 0.0000016235331406529008 0
0.004624364789298505 -0.0000017416323682068722 0
0.007500095383536538 0.0000007008461761067829 0
0.0019453187782481605 0.00000019313961423591545 0
0.004623852723770348 -0.000000521672282325306 0
0.001660332916216605 0.00000031147123003100695 0
0.0019410430017799398 0.0000006388737412957728 0
0.004572951627781012 0.0000016965244275230386 0
0.0033646860810579325 -0.00000014818021107195017 0
0.007500983473402839 0.0000005498670968765628 0
0.0016089604362521804 -0.0000006122247835677803 0
0.006608753348150674 -0.0000003630493314105161 0
0.0016132257052856838 -0.00000028627502815553924 0
0.007501244991553559 0.0000015681786402392113 0
0.005428862904837082 -0.0000009707900915156748 0
0.001945459210611195 0.0000003178637660913709 0
0.006521094350540166 -0.00000038683274534554914 0
0.005424373171022311 -0.0000022493168836976144 0
0.007501079797519168 0.0000004912538047472594 0
0.00660872741343749 -0.000000343911989702087 0
0.00750116409967972 0.0000003460297355691177 0
0.006521070158682117 -0.00000036239928961733755 0
0.007501297535625982 0.00000004377402844652744 0
0.006608720970584033 -0.0000003048376653575054 0
0.007501331887041011 -0.0000000055228234087684925 0
0.006909061749911319 0.0000017042266125771667 0
0.006521065569201873 -0.0000003205353850664311 0
0.007501343638998127 -0.000000052260843853260095 0
0.006608724685825779 -0.0000002560247381458659 0
0.007501364317848926 -0.00000008054511605804282 0
0.0073763197216174265 -0.0000003515955812363454 0
0.007501377959121744 -0.00000010696965206505195 0
0.006521071288889148 -0.0000002702543855723109 0
0.007501390660789991 -0.00000011643607636423409 0
0.007249001966429302 -0.000001005117819342578 0
0.00028985078776217317 0.0000002675787595944122 0
0.00017451413639430743 -0.00000009647531424106274 0
0.007501405464716513 -0.00000012809244682270734 0
0.0010024248500310475 0.00000038392457535914757 0
0.006608733554789874 -0.00000020603862004218325 0
0.006521082192750855 -0.00000021961572527416708 0
0.0075014170331049405 -0.00000012295749375564367 0
0.006608744374794583 -0.00000015973133404372626 0
0.006521094756049974 -0.00000017317736150697932 0
0.0011593449631484016 -0.00000021516772416982798 0
0.006608755314903292 -0.0000001187852500232075 0
0.006521107039504275 -0.00000013235126308305044 0
0.00030602255408672136 0.0000000610593424330732 0
0.00015944039114423373 0.00000000897775337045985 0
0.007501432115626852 -0.00000012686505805339827 0
0.0010482017945172013 0.00000033127324515772325 0
0.00660876555633629 -0.0000000834344805653657 0
0.007501448558332276 -0.00000011282876286117077 0
0.00028993063841857325 0.0000002730581568176043 0
0.00017456935009212886 -0.00000009403812187433201 0
0.00652111824919742 -0.0000000972121985486066 0
0.001002628752289657 0.000000424907806097383 0
0.007501463461353213 -0.00000011544960969126822 0
0.002696406719302968 -0.00000009894461606851429 0
0.007501487514395681 -0.00000009475885625150247 0
0.0028202348937542083 -0.00000030671186465586434 0
0.007501517251372966 -0.00000009793717692948794 0
0.0021787347076191194 -0.0000023628907877491553 0
0.0024331058649004708 -0.000002714382667972843 0
0.0057809361533154345 0.0000024922864959603474 0
0.0018867177353932348 -0.0000014467217191423942 0
0.00565351819121453 0.0000023100298030603334 0
0.007451021534103434 -0.00000011981118421541802 0
0.00030525254220380794 0.0000001046276515602029 0
0.00011935790806344393 0.0000003178716535808836 0
0.0009241288515294262 0.00000035717634884574166 0
0.001135531684273737 0.0000002859084600152583 0
0.0032741612469713794 -0.000003507452978518488 0
0.00750151682056648 -0.00000003583664813358898 0
0.002155218340229854 0.0000004775321440500656 0
0.002443971991486198 0.0000015037433657196677 0
0.0066087748315754495 -0.00000005338802474025735 0
0.002136710425493428 0.0000008148251641621626 0
0.002446318735364566 -0.00000032690308137091075 0
0.0010224797481007786 0.0000004153237973120369 0
0.0012231052535068697 0.000000026642452126318582 0
0.00713695920817657 0.0000000504902331008838 0
0.000924302618222869 0.00000039316183819751316 0
0.0011357154609052636 0.0000003380183842218882 0
0.0074693214497836115 -0.00000014654478949543804 0
0.0034345670347394634 0.000006235423986782454 0
0.0021553608541339847 0.0000006198733172164149 0
0.0024441000536049645 0.000001670508144236662 0
0.0016247058466993649 -0.0000011145115896576574 0
0.001415702265590943 -0.000001160841417663634 0
0.0075018279288002095 0.00000007086134753925035 0
0.007312986870037647 0.0000008968402763495413 0
0.001283837023706446 -0.0000010462229204320327 0
0.007501375429256911 0.0000007327912497824153 0
0.007359523246643447 0.0000009229543564256003 0
0.0018107098867006998 0.0000006545303766624656 0
0.007501642394745301 0.0000007597455982276934 0
0.0020115230164051163 0.0000005502691088846168 0
0.0017786381242716647 0.00000006168210190539808 0
0.002191462498000097 0.0000010673588758336362 0
0.000496173874698403 -0.00000013328878458365065 0
0.0018109270238032596 0.0000007657845299632318 0
0.007501681625911531 0.0000008020361292761249 0
0.001238021248034715 -0.0000011077131868736677 0
0.001482282439141739 -0.000001318134597529094 0
0.00027814392480243435 -0.00000021441901245566754 0
0.0034347572522729504 0.000006476591952348142 0
0.00031761157206744315 -0.00000016096755843674573 0
0.0001284649263789566 -0.00000047320622467330787 0
0.007501683283286871 0.0000007944427859651243 0
0.0013043345297318323 0.00000005729301459059303 0
0.0058259995265942735 0.0000001962469306573545 0
0.00161583852739877 0.0000004830349710308829 0
0.0014006328642638414 0.000000320976005285418 0
0.007501722727998889 0.0000008280600307000365 0
0.0015986402517945205 0.00000009171868106870128 0
0.001420686498283818 -0.00000014734383749010374 0
0.001981056335711193 0.0000010718715632793764 0
0.005739741889173878 0.000000023953739977436436 0
0.00032497193737625676 0.00000023066082616774522 0
0.00017183713320219205 0.000000560504267764706 0
0.0010687414654547047 -0.00000001346506717934262 0
0.0012858751251068137 -0.00000026577131000671964 0
0.0006268450260161056 0.00000030711182300525165 0
0.007501716516190649 0.0000008367190262907084 0
0.00031771161759241523 -0.00000015582393308432965 0
0.00012851070952322338 -0.000000471744078067713 0
0.0073365613989734985 -0.0000006661857481350529 0
0.001304597864435305 0.00000011989398279194175 0
0.007501749856786057 0.0000008692853778519219 0
0.0016160446163771668 0.0000005764810962596112 0
0.001400847287190798 0.00000039439016396437854 0
0.007358861731282828 -0.0000006964235614781831 0
0.007501735867689863 0.0000008834020709353085 0
0.002585438383918353 -0.0000025861080420191326 0
0.0029187351248352164 -0.0000035187464893537792 0
0.000506803846183027 -0.00000001180819334336381 0
0.0021332931315754563 -0.0000018072892750444548 0
0.007501766331631299 0.0000009136315014384257 0
0.0002913138981149612 -0.00000005788519430045294 0
0.0075017451854035725 0.0000009310255523900218 0
0.00029124399070952793 -0.0000001563224988064457 0
0.00018375671504712858 -0.0000006254449078261333 0
0.0012383833697245568 0.00000014473132447323877 0
0.0014728649747093924 0.000000273150864572726 0
0.006346616752153039 -0.0000008886926206454801 0
0.007501773661381529 0.0000009584252950781061 0
0.006435805400866515 -0.000000809940117571801 0
0.002605419048306703 0.0000019212752516671704 0
0.002891646398681208 0.0000023283184435180643 0
0.007135440477556136 -0.0000005532697814139049 0
0.0075017458344070875 0.0000009784604666247437 0
0.002605967175460842 -0.000000811428286883876 0
0.0028870134949230677 -0.0000016009387007060578 0
0.0012334898830150336 -0.00000013225553492027225 0
0.001491974956852861 -0.00000037144216212707284 0
0.0007902605615894562 0.00000041010699800025223 0
0.0012386226539271923 0.00000020287067420786326 0
0.001473105428119881 0.0000003520394145380037 0
0.005702083056993252 0.0000010042376466192425 0
0.007501772544792691 0.0000010031702765369166 0
0.00582016592283684 0.0000009559238382530683 0
0.002605540703749157 0.0000021021012315885533 0
0.002891739294801518 0.000002534599793268424 0
0.0019472449191372692 -0.000001558389429309369 0
0.0017119395767573994 -0.0000014923995779397584 0
0.007501736958476474 0.0000010259518086396398 0
0.0012188662936102324 -0.0000005668216966823423 0
0.0015528276792310305 -0.0000017554165431794987 0
0.0006527098176975749 -0.0000004902817925160683 0
0.002224417442989104 0.0000008787758155922026 0
0.0020995715055827486 0.0000011782988583036017 0
0.002465705906601224 0.0000012071351866104655 0
0.006521128167875479 -0.00000006739293491449499 0
0.0021025073157773405 -0.00000035164108552282797 0
0.007501762423175809 0.0000010491065486573864 0
0.002224627166258239 0.000001028557622383317 0
0.00209981580928384 0.0000013171016040640763 0
0.002465856648008818 0.0000013760600169264572 0
0.001539227574219888 -0.0000015237478099447918 0
0.0017680709822521774 -0.0000017599702587826046 0
0.006608783140461851 -0.00000002817585184725972 0
0.007501719509945103 0.0000010763371104329885 0
0.00029666923743464817 -0.00000012968227322783687 0
0.00021177069682298277 0.0000012565030863412091 0
0.001230254648766427 0.0000009251170042083651 0
0.0015714657142084452 0.0000012455242924596462 0
0.000674939567161701 0.0000001705941189974595 0
0.0018905892535119229 0.0000008372488847108379 0
0.0016982913414561964 0.0000005465675314815646 0
0.0018795214143330255 -0.0000003801713416944716 0
0.0016860969060121678 -0.0000006307469949849457 0
0.0007848100309869701 0.000000057471115077280916 0
0.001099526272668519 -0.00000070220554540303 0
0.0003438611627943521 0.0000007602542225476842 0
0.0001821356486413667 0.00000018211521895398513 0
0.0013075105451252733 -0.0000016373582345923245 0
0.0016171288641821427 -0.0000013542100223654047 0
0.0006822398365413726 0.00000014785550449903052 0
0.006521136833040276 -0.00000004238986685774893 0
0.007501740048076243 0.0000010988725937084492 0
0.0002967711468865486 -0.00000012499596301921062 0
0.00021185357591678412 0.0000012599064472141378 0
0.0012305351993708547 0.0000009776138090383596 0
0.0015717727972355809 0.0000013291427574497657 0
0.0006751455832101249 0.00000018652305268593272 0
0.001890832469032247 0.0000009558599857069784 0
0.0016985514406741113 0.00000064592244779395 0
0.006608790594071814 -0.0000000072783778843549156 0
0.007501691987050313 0.0000011408407411469448 0
0.003047433595073003 -0.000003657233480944559 0
0.0033357110802712505 -0.0000035764880426791476 0
0.0025648365072044963 -0.0000020854879328772733 0
0.002397773267641906 -0.0000021648474449352736 0
0.0028764378986007406 -0.0000029272178102725546 0
0.0008348955225631942 -0.0000004888236857593564 0
0.001174415428027318 -0.00000008068866833020574 0
0.0003464668162079032 -0.000001484648924897639 0
0.007292510992950866 -0.0000005553017375398312 0
0.0015381920309348468 0.00000046320390294317715 0
0.0017645684112839377 0.0000008080069741222086 0
0.0025844243451939503 0.0000013836279542983768 0
0.0024617638321971567 0.0000010604147860693823 0
0.0030198419265184337 0.0000019599890954910697 0
0.007336710077347215 -0.0000005868825144972792 0
0.007449395548812863 0.0000007786528923678986 0
0.0075017118644236085 0.0000011534329329522783 0
0.0030033384251030152 -0.0000013474359016212353 0
0.0015394081304991153 0.00000015586838797199697 0
0.0015599034991385639 -0.0000007434529947475178 0
0.0017813274127633412 -0.0000008584365253172417 0
0.0015384848691074443 0.0000005453014219466917 0
0.0017648507872904226 0.0000009128641625576199 0
0.002584582174525237 0.0000015639410074347375 0
0.002461959267385031 0.00000123184995695427 0
0.003019924735822042 0.0000021780658467577675 0
0.007430644979485924 0.0000007848909407395797 0
0.002182128424245631 -0.0000018956116804424779 0
0.001965771111420661 -0.000001961867704771895 0
0.0013852541407638728 -0.0000013517503168882897 0
0.0017509958501606155 -0.0000035050652119418047 0
0.0007835547398806998 -0.000001967341704752705 0
0.0026037271363198214 0.0000012216142193169518 0
0.002414128955168962 0.000001910588348209879 0
0.0028664607201885368 0.0000017520087939248365 0
0.002637482519537725 -0.0000005921412359451403 0
0.002504076401695817 -0.0000007823451933754832 0
0.0028232541786047446 -0.00000039516923603005357 0
0.002603931079609555 0.0000014073012691776083 0
0.0024143804580919886 0.0000020803441637137515 0
0.0028665876431859983 0.0000019573201454353872 0
0.0017339736288230349 -0.000002618705451460133 0
0.0020209940059464754 -0.000002558020243569598 0
0.0008678710458966405 0.0000013287412953741165 0
0.0012279262003325572 0.000002798379594460856 0
0.00039321083744365594 0.0000016295219402077067 0
0.0013646758153284372 0.0000002997199019950188 0
0.001451098543947662 0.00000450780163414937 0
0.001788159524299441 0.0000031959273961441964 0
0.0008690237708577528 0.0000028028714556984183 0
0.0021967239011027 0.000001582930341538104 0
0.0019739137303675385 0.0000013080485585942721 0
0.003237058282108324 -0.0000009975095419365048 0
0.005152095060140821 0.0000008312941555574573 0
0.003599303847873439 -0.0000008696970737609658 0
0.003817614707687667 -0.000001160381785852744 0
0.002213805959635351 -0.0000005945418030073139 0
0.0020362007082568912 -0.00000098387148306913 0
0.0008419680574279246 -0.0000016383132748254223 0
0.0012787318083042037 -0.0000030012218522338495 0
0.0008681299834081314 0.00000135194480873679 0
0.0012282482584168761 0.0000028468835006741612 0
0.0003933563688420308 0.0000016350801566934202 0
0.0041179378979644375 -0.000001584488009180131 0
0.0014514563877926503 0.000004571248408875371 0
0.001788518354159849 0.0000032940804300328703 0
0.0008692933232947361 0.000002823054618460132 0
0.0021969835318719935 0.0000017314368681634915 0
0.0019742060457559863 0.0000014332171436761175 0
0.0029814458679358093 -0.0000030013618813337817 0
0.0028223231589130228 -0.000002295478487706565 0
0.0034517767848548314 -0.0000029172077407583278 0
0.007501405985524199 0.0000011578010177565342 0
0.002936810288267414 -0.000002542371950597092 0
0.002714734895025968 -0.000002698391133428936 0
0.003264230841412299 -0.000003182235512840187 0
0.0009826903385880832 -0.0000008739096385868666 0
0.0013903995170376463 -0.0000015564257337391316 0
0.005259523338168823 0.000000975220219157591 0
0.004106534216708076 -0.0000009141702083461958 0
0.001751628523053044 0.0000020443409355997552 0
0.002036494038109277 0.000001889689176277022 0
0.003006703376048101 0.0000016162043952054434 0